Program Version,EnergyPlus, Version 24.1.0-9d7789a3ac, YMD=2026.01.18 13:50
1,5,Environment Title[],Latitude[deg],Longitude[deg],Time Zone[],Elevation[m]
2,8,Day of Simulation[],Month[],Day of Month[],DST Indicator[1=yes 0=no],Hour[],StartMinute[],EndMinute[],DayType
3,5,Cumulative Day of Simulation[],Month[],Day of Month[],DST Indicator[1=yes 0=no],DayType  ! When Daily Report Variables Requested
4,2,Cumulative Days of Simulation[],Month[]  ! When Monthly Report Variables Requested
5,1,Cumulative Days of Simulation[] ! When Run Period Report Variables Requested
6,1,Calendar Year of Simulation[] ! When Annual Report Variables Requested
7,1,Environment,Site Outdoor Air Drybulb Temperature [C] !Hourly
8,1,Environment,Site Diffuse Solar Radiation Rate per Area [W/m2] !Hourly
9,1,Environment,Site Direct Solar Radiation Rate per Area [W/m2] !Hourly
452,1,PLENUM-1,Zone Mean Air Dewpoint Temperature [C] !Hourly
453,1,SPACE1-1,Zone Mean Air Dewpoint Temperature [C] !Hourly
454,1,SPACE2-1,Zone Mean Air Dewpoint Temperature [C] !Hourly
455,1,SPACE3-1,Zone Mean Air Dewpoint Temperature [C] !Hourly
456,1,SPACE4-1,Zone Mean Air Dewpoint Temperature [C] !Hourly
457,1,SPACE5-1,Zone Mean Air Dewpoint Temperature [C] !Hourly
458,1,PLENUM-1,Zone Air Temperature [C] !Hourly
459,1,PLENUM-1,Zone Air System Sensible Heating Energy [J] !Hourly
593,1,PLENUM-1,Zone Air System Sensible Heating Rate [W] !Hourly
594,1,PLENUM-1,Zone Air System Sensible Cooling Rate [W] !Hourly
595,1,SPACE1-1,Zone Air Temperature [C] !Hourly
596,1,SPACE1-1,Zone Air System Sensible Heating Energy [J] !Hourly
658,1,SPACE1-1,Zone Air System Sensible Heating Rate [W] !Hourly
659,1,SPACE1-1,Zone Air System Sensible Cooling Rate [W] !Hourly
660,1,SPACE2-1,Zone Air Temperature [C] !Hourly
661,1,SPACE2-1,Zone Air System Sensible Heating Energy [J] !Hourly
723,1,SPACE2-1,Zone Air System Sensible Heating Rate [W] !Hourly
724,1,SPACE2-1,Zone Air System Sensible Cooling Rate [W] !Hourly
725,1,SPACE3-1,Zone Air Temperature [C] !Hourly
726,1,SPACE3-1,Zone Air System Sensible Heating Energy [J] !Hourly
788,1,SPACE3-1,Zone Air System Sensible Heating Rate [W] !Hourly
789,1,SPACE3-1,Zone Air System Sensible Cooling Rate [W] !Hourly
790,1,SPACE4-1,Zone Air Temperature [C] !Hourly
791,1,SPACE4-1,Zone Air System Sensible Heating Energy [J] !Hourly
853,1,SPACE4-1,Zone Air System Sensible Heating Rate [W] !Hourly
854,1,SPACE4-1,Zone Air System Sensible Cooling Rate [W] !Hourly
855,1,SPACE5-1,Zone Air Temperature [C] !Hourly
856,1,SPACE5-1,Zone Air System Sensible Heating Energy [J] !Hourly
918,1,SPACE5-1,Zone Air System Sensible Heating Rate [W] !Hourly
919,1,SPACE5-1,Zone Air System Sensible Cooling Rate [W] !Hourly
920,1,HOT WATER LOOP,Plant Supply Side Cooling Demand Rate [W] !Hourly
921,1,HOT WATER LOOP,Plant Supply Side Heating Demand Rate [W] !Hourly
922,1,CHILLED WATER LOOP,Plant Supply Side Cooling Demand Rate [W] !Hourly
923,1,CHILLED WATER LOOP,Plant Supply Side Heating Demand Rate [W] !Hourly
1133,1,SPACE1-1 ZONE COIL,Heating Coil Heating Rate [W] !Hourly
1136,1,SPACE2-1 ZONE COIL,Heating Coil Heating Rate [W] !Hourly
1139,1,SPACE3-1 ZONE COIL,Heating Coil Heating Rate [W] !Hourly
1142,1,SPACE4-1 ZONE COIL,Heating Coil Heating Rate [W] !Hourly
1145,1,SPACE5-1 ZONE COIL,Heating Coil Heating Rate [W] !Hourly
1148,1,OA HEATING COIL 1,Heating Coil Heating Rate [W] !Hourly
1151,1,MAIN HEATING COIL 1,Heating Coil Heating Rate [W] !Hourly
1202,1,OA COOLING COIL 1,Cooling Coil Total Cooling Rate [W] !Hourly
1203,1,OA COOLING COIL 1,Cooling Coil Sensible Cooling Rate [W] !Hourly
1206,1,MAIN COOLING COIL 1,Cooling Coil Total Cooling Rate [W] !Hourly
1207,1,MAIN COOLING COIL 1,Cooling Coil Sensible Cooling Rate [W] !Hourly
1245,1,CENTRAL BOILER,Boiler Heating Rate [W] !Hourly
1271,1,CENTRAL BOILER,Boiler NaturalGas Rate [W] !Hourly
1371,1,CENTRAL CHILLER,Chiller Electricity Rate [W] !Hourly
1397,1,CENTRAL CHILLER,Chiller Evaporator Cooling Rate [W] !Hourly
1411,1,CENTRAL CHILLER,Chiller Evaporator Inlet Temperature [C] !Hourly
1412,1,CENTRAL CHILLER,Chiller Evaporator Outlet Temperature [C] !Hourly
1413,1,CENTRAL CHILLER,Chiller Evaporator Mass Flow Rate [kg/s] !Hourly
1414,1,CENTRAL CHILLER,Chiller Condenser Heat Transfer Rate [W] !Hourly
1465,1,HW CIRC PUMP,Pump Outlet Temperature [C] !Hourly
1466,1,HW CIRC PUMP,Pump Mass Flow Rate [kg/s] !Hourly
1468,1,CW CIRC PUMP,Pump Outlet Temperature [C] !Hourly
1469,1,CW CIRC PUMP,Pump Mass Flow Rate [kg/s] !Hourly
1470,1,MIXED AIR NODE 1,System Node Temperature [C] !Hourly
1471,1,MIXED AIR NODE 1,System Node Humidity Ratio [kgWater/kgDryAir] !Hourly
1472,1,MIXED AIR NODE 1,System Node Dewpoint Temperature [C] !Hourly
1473,1,VAV SYS 1 OUTLET NODE,System Node Temperature [C] !Hourly
1474,1,VAV SYS 1 OUTLET NODE,System Node Mass Flow Rate [kg/s] !Hourly
1475,1,VAV SYS 1 OUTLET NODE,System Node Humidity Ratio [kgWater/kgDryAir] !Hourly
1476,1,VAV SYS 1 OUTLET NODE,System Node Setpoint Temperature [C] !Hourly
1477,1,OA HEATING COIL 1 WATER INLET NODE,System Node Temperature [C] !Hourly
1478,1,OA HEATING COIL 1 WATER INLET NODE,System Node Mass Flow Rate [kg/s] !Hourly
1479,1,MAIN HEATING COIL 1 WATER INLET NODE,System Node Mass Flow Rate [kg/s] !Hourly
1480,1,MAIN COOLING COIL 1 WATER INLET NODE,System Node Mass Flow Rate [kg/s] !Hourly
1481,1,OA COOLING COIL 1 WATER INLET NODE,System Node Temperature [C] !Hourly
1482,1,OA COOLING COIL 1 WATER INLET NODE,System Node Mass Flow Rate [kg/s] !Hourly
1483,1,OA MIXING BOX 1 INLET NODE,System Node Temperature [C] !Hourly
1484,1,OA MIXING BOX 1 INLET NODE,System Node Mass Flow Rate [kg/s] !Hourly
1485,1,OA MIXING BOX 1 INLET NODE,System Node Humidity Ratio [kgWater/kgDryAir] !Hourly
1486,1,OA MIXING BOX 1 INLET NODE,System Node Setpoint Temperature [C] !Hourly
1487,1,OA HEATING COIL 1 AIR OUTLET NODE,System Node Temperature [C] !Hourly
1488,1,OA HEATING COIL 1 AIR OUTLET NODE,System Node Mass Flow Rate [kg/s] !Hourly
1489,1,OA HEATING COIL 1 AIR OUTLET NODE,System Node Humidity Ratio [kgWater/kgDryAir] !Hourly
1490,1,OA HEATING COIL 1 AIR OUTLET NODE,System Node Setpoint Temperature [C] !Hourly
End of Data Dictionary
1,RUN PERIOD 1,  34.05,  -6.75,   1.00,  84.10
2,1, 1, 1, 0, 1, 0.00,60.00,Tuesday
7,9.75
8,0.0
9,0.0
452,10.474680209424665
453,10.383166400950651
454,10.411417327527275
455,10.393227253211078
456,10.412849876628691
457,10.437715666139363
458,19.846660332547135
459,66488.30093002197
593,18.46897248056166
594,10.130103189849933
595,19.38899072204867
596,381447.0366201027
658,105.95751017225075
659,0.0
660,19.59439106314862
661,289512.42920808727
723,80.42011922446869
724,0.0
725,19.384576610391516
726,480286.57304259704
788,133.41293695627695
789,0.0
790,19.60234574870799
791,300079.3226502094
853,83.35536740283595
854,0.0
855,20.2153644379678
856,159059.9105269997
918,44.18330847972214
919,0.0
920,0.0
921,0.0
922,0.0
923,0.0
1133,0.0
1136,0.0
1139,0.0
1142,0.0
1145,0.0
1148,0.0
1151,0.0
1202,0.0
1203,0.0
1206,0.0
1207,0.0
1245,0.0
1271,0.0
1371,0.0
1397,0.0
1411,7.667054966444321
1412,7.667054966444321
1413,0.0
1414,0.0
1465,51.36514706299733
1466,0.0
1468,7.667054966444321
1469,0.0
1470,19.805417545245206
1471,0.007866077469394826
1472,10.44884777323151
1473,20.78811694841522
1474,0.37823452791943113
1475,0.007866077469394826
1476,16.0
1477,82.0
1478,0.0
1479,0.0
1480,0.0
1481,7.220000000000001
1482,0.0
1483,9.75
1484,0.006298416489679691
1485,0.005875846718661629
1486,11.5
1487,9.75
1488,0.006298416489679691
1489,0.005875846718661629
1490,4.5
2,1, 1, 1, 0, 2, 0.00,60.00,Tuesday
7,10.8625
8,0.0
9,0.0
452,10.294888276281505
453,10.230597619238113
454,10.251478818245708
455,10.239552628720382
456,10.252208346159648
457,10.24354614590932
458,19.41197969432124
459,421506.8979737391
593,117.08524943714974
594,0.0
595,19.279282394512215
596,291462.98857797356
658,80.96194127165933
659,0.0
660,19.430306879216932
661,222655.36336640155
723,61.84871204622266
724,0.0
725,19.269331393694436
726,369237.16303254425
788,102.56587862015118
789,0.0
790,19.437546693448873
791,230498.17999230835
853,64.02727222008565
854,0.0
855,20.048935680082337
856,83167.36333056891
918,23.10204536960248
919,0.0
920,0.0
921,0.0
922,0.0
923,0.0
1133,0.0
1136,0.0
1139,0.0
1142,0.0
1145,0.0
1148,0.0
1151,0.0
1202,0.0
1203,0.0
1206,0.0
1207,0.0
1245,0.0
1271,0.0
1371,0.0
1397,0.0
1411,7.667054966444321
1412,7.667054966444321
1413,0.0
1414,0.0
1465,51.36514706299733
1466,0.0
1468,7.667054966444321
1469,0.0
1470,19.365632075694684
1471,0.007798519414976258
1472,10.26048301983262
1473,20.34845255159706
1474,0.37823452791943113
1475,0.007798519414976258
1476,16.0
1477,82.0
1478,0.0
1479,0.0
1480,0.0
1481,7.220000000000001
1482,0.0
1483,10.8625
1484,0.006298416489679691
1485,0.005928070002830903
1486,11.5
1487,10.8625
1488,0.006298416489679691
1489,0.005928070002830903
1490,4.5
2,1, 1, 1, 0, 3, 0.00,60.00,Tuesday
7,9.0875
8,0.0
9,0.0
452,10.085288461817186
453,9.997540276122105
454,10.013135767099252
455,10.004516878296554
456,10.013793232541566
457,9.989797322313963
458,19.0884002059558
459,651958.7963174422
593,181.09966564373394
594,0.0
595,19.102636110271575
596,238629.00691415876
658,66.28583525393299
659,0.0
660,19.240532311445058
661,178841.3028544365
723,49.67813968178791
724,0.0
725,19.093123870541643
726,302770.81233115576
788,84.10300342532105
789,0.0
790,19.24677300118008
791,185033.2551077531
853,51.39812641882031
854,0.0
855,19.914490148229994
856,18440.163602553526
918,5.122267667375979
919,0.21665683952255677
920,0.0
921,0.0
922,0.0
923,0.0
1133,0.0
1136,0.0
1139,0.0
1142,0.0
1145,0.0
1148,0.0
1151,0.0
1202,0.0
1203,0.0
1206,0.0
1207,0.0
1245,0.0
1271,0.0
1371,0.0
1397,0.0
1411,7.667054966444321
1412,7.667054966444321
1413,0.0
1414,0.0
1465,51.36514706299733
1466,0.0
1468,7.667054966444321
1469,0.0
1470,18.995151867409877
1471,0.007728633202869781
1472,10.03603143212967
1473,19.97809762107197
1474,0.37823452791943113
1475,0.007728633202869781
1476,16.0
1477,82.0
1478,0.0
1479,0.0
1480,0.0
1481,7.220000000000001
1482,0.0
1483,9.0875
1484,0.006298416489679691
1485,0.005133968230159915
1486,11.5
1487,9.0875
1488,0.006298416489679691
1489,0.005133968230159915
1490,4.5
2,1, 1, 1, 0, 4, 0.00,60.00,Tuesday
7,9.0625
8,0.0
9,0.0
452,10.060992137704151
453,9.984444243178359
454,10.010500755030707
455,9.994377728208335
456,10.011835411142885
457,9.95542677527891
458,18.810499717873434
459,798369.1533761203
593,221.76920927114452
594,0.0
595,18.95332798531421
596,202872.19289093657
658,56.35338691414904
659,0.0
660,19.08237340483989
661,149185.59302156055
723,41.44044250598904
724,0.0
725,18.944887132423034
726,257523.87223290067
788,71.53440895358352
789,0.0
790,19.087843988112066
791,154284.13703313656
853,42.85670473142682
854,0.0
855,19.813180442156504
856,0.0
918,0.0
919,8.901275099578413
920,0.0
921,0.0
922,0.0
923,0.0
1133,0.0
1136,0.0
1139,0.0
1142,0.0
1145,0.0
1148,0.0
1151,0.0
1202,0.0
1203,0.0
1206,0.0
1207,0.0
1245,0.0
1271,0.0
1371,0.0
1397,0.0
1411,7.667054966444321
1412,7.667054966444321
1413,0.0
1414,0.0
1465,51.36514706299733
1466,0.0
1468,7.667054966444321
1469,0.0
1470,18.714651861368974
1471,0.00765213629214391
1472,10.040626417009895
1473,19.697734778443607
1474,0.37823452791943113
1475,0.00765213629214391
1476,16.0
1477,82.0
1478,0.0
1479,0.0
1480,0.0
1481,7.220000000000001
1482,0.0
1483,9.0625
1484,0.006298416489679691
1485,0.0056606362122708755
1486,11.5
1487,9.0625
1488,0.006298416489679691
1489,0.0056606362122708755
1490,4.5
2,1, 1, 1, 0, 5, 0.00,60.00,Tuesday
7,9.8875
8,0.0
9,0.0
452,9.89772967349974
453,9.877554285677464
454,9.888457619702988
455,9.883435261507184
456,9.888582134750525
457,9.850729172339491
458,18.574419288998662
459,1038678.0193528702
593,288.52167204246393
594,0.0
595,18.91717051604193
596,149481.83251133253
658,41.522731253147924
659,0.0
660,19.01085045038302
661,110265.32211374723
723,30.62925614270756
724,0.0
725,18.899266141521345
726,193747.0674472476
788,53.81862984645767
789,0.0
790,19.015258349579327
791,113941.5225794759
853,31.650422938743304
854,0.0
855,19.761561266809213
856,0.0
918,0.0
919,22.810310341648403
920,0.0
921,0.0
922,0.0
923,0.0
1133,0.0
1136,0.0
1139,0.0
1142,0.0
1145,0.0
1148,0.0
1151,0.0
1202,0.0
1203,0.0
1206,0.0
1207,0.0
1245,0.0
1271,0.0
1371,0.0
1397,0.0
1411,7.667054966444321
1412,7.667054966444321
1413,0.0
1414,0.0
1465,51.36514706299733
1466,0.0
1468,7.667054966444321
1469,0.0
1470,18.48252866182168
1471,0.00759934838806569
1472,9.876919622162138
1473,19.465706251976595
1474,0.37823452791943113
1475,0.00759934838806569
1476,16.0
1477,82.0
1478,0.0
1479,0.0
1480,0.0
1481,7.220000000000001
1482,0.0
1483,9.8875
1484,0.006298416489679691
1485,0.006520392410023489
1486,11.5
1487,9.8875
1488,0.006298416489679691
1489,0.006520392410023489
1490,4.5
2,1, 1, 1, 0, 6, 0.00,60.00,Tuesday
7,9.6875
8,0.0
9,0.0
452,9.772984181770052
453,9.76122290927336
454,9.759160168034226
455,9.761906361305948
456,9.75886626881853
457,9.747347138263518
458,18.400715695931964
459,1196950.201912575
593,332.48616719793745
594,0.0
595,18.85613303202475
596,114609.310863719
658,31.835919684366388
659,0.0
660,18.93234179336074
661,83477.97986122628
723,23.18832773922952
724,0.0
725,18.833501075436644
726,151592.59834138048
788,42.10905509482791
789,0.0
790,18.935788136273004
791,86233.42321885175
853,23.953728671903264
854,0.0
855,19.699601248480867
856,0.0
918,0.0
919,32.60446930072612
920,0.0
921,0.0
922,0.0
923,0.0
1133,0.0
1136,0.0
1139,0.0
1142,0.0
1145,0.0
1148,0.0
1151,0.0
1202,0.0
1203,0.0
1206,0.0
1207,0.0
1245,0.0
1271,0.0
1371,0.0
1397,0.0
1411,7.667054966444321
1412,7.667054966444321
1413,0.0
1414,0.0
1465,51.36514706299733
1466,0.0
1468,7.667054966444321
1469,0.0
1470,18.29350503906816
1471,0.007583941885194547
1472,9.755442063546955
1473,19.276710263850312
1474,0.37823452791943113
1475,0.007583941885194547
1476,16.0
1477,82.0
1478,0.0
1479,0.0
1480,0.0
1481,7.220000000000001
1482,0.0
1483,9.6875
1484,0.006298416489679691
1485,0.006842111796069523
1486,11.5
1487,9.6875
1488,0.006298416489679691
1489,0.006842111796069523
1490,4.5
2,1, 1, 1, 0, 7, 0.00,60.00,Tuesday
7,9.5
8,0.0
9,0.0
452,9.722042390070712
453,9.43384692412636
454,9.163016826981563
455,9.35544384334565
456,9.145911989041052
457,9.593416978187653
458,18.232834361971353
459,1041383.3887438413
593,289.27316353995593
594,0.0
595,18.559793846780824
596,0.0
658,0.0
659,193.7121232119585
660,18.45123958651163
661,0.0
723,0.0
724,164.98586716243284
725,18.47908565269099
726,0.0
788,0.0
789,235.46128666755078
790,18.438672547833768
791,0.0
853,0.0
854,171.27037349663942
855,19.491640154332444
856,0.0
918,0.0
919,269.15407365648394
920,0.0
921,1753.1272896217952
922,0.0
923,0.0
1133,0.0
1136,0.0
1139,0.0
1142,0.0
1145,0.0
1148,0.0
1151,1556.575998426682
1202,0.0
1203,0.0
1206,0.0
1207,0.0
1245,1753.1272896217952
1271,2191.409112027244
1371,0.0
1397,0.0
1411,7.667054966444321
1412,7.667054966444321
1413,0.0
1414,0.0
1465,54.43615143757309
1466,0.015208049648080549
1468,7.667054966444321
1469,0.0
1470,10.971575681052816
1471,0.0068911950619315755
1472,8.50727854703478
1473,16.000020704827524
1474,0.37823452791943113
1475,0.0068911950619315755
1476,16.0
1477,82.0
1478,0.0
1479,0.015208049648080549
1480,0.0
1481,7.220000000000001
1482,0.0
1483,9.5
1484,0.31492082448398456
1485,0.006759624016085248
1486,11.5
1487,9.5
1488,0.31492082448398456
1489,0.006759624016085248
1490,4.5
2,1, 1, 1, 0, 8, 0.00,60.00,Tuesday
7,9.1875
8,0.0
9,0.0
452,8.84223000779595
453,8.544145315580236
454,8.12816901707414
455,8.399932655390598
456,8.10900972523361
457,8.91911133960448
458,18.05232850292802
459,970149.7175179729
593,269.48603264388134
594,0.0
595,18.427685042423267
596,0.0
658,0.0
659,183.60886504064376
660,18.259324363222312
661,0.0
723,0.0
724,151.952541918873
725,18.326452873407987
726,0.0
788,0.0
789,220.8218418966781
790,18.242434715241515
791,0.0
853,0.0
854,157.36726708551197
855,19.391151444122848
856,0.0
918,0.0
919,261.30041464248603
920,0.0
921,1739.8006247711746
922,0.0
923,0.0
1133,0.0
1136,0.0
1139,0.0
1142,0.0
1145,0.0
1148,0.0
1151,1667.3496138565813
1202,0.0
1203,0.0
1206,0.0
1207,0.0
1245,1739.8006247711746
1271,2174.7507809639683
1371,0.0
1397,0.0
1411,7.667054966444321
1412,7.667054966444321
1413,0.0
1414,0.0
1465,57.396678439676
1466,0.016918070062479064
1468,7.667054966444321
1469,0.0
1470,10.679920796119232
1471,0.006538047260302243
1472,7.679717171684234
1473,15.999612789140219
1474,0.37823452791943113
1475,0.006538047260302243
1476,16.0
1477,82.0
1478,0.0
1479,0.016918070062479064
1480,0.0
1481,7.220000000000001
1482,0.0
1483,9.1875
1484,0.31492082448398456
1485,0.006407704445172528
1486,11.5
1487,9.1875
1488,0.31492082448398456
1489,0.006407704445172528
1490,4.5
2,1, 1, 1, 0, 9, 0.00,60.00,Tuesday
7,9.125
8,31.4375
9,330.5625
452,8.560705609998088
453,9.075203071969657
454,8.62130727923157
455,8.887682799926603
456,8.580519816660033
457,9.708776745590596
458,18.778654082337454
459,6352993.853975658
593,1764.7205149932379
594,0.0
595,19.837311051053664
596,0.0
658,0.0
659,290.2741701303256
660,20.20763228036459
661,0.0
723,0.0
724,283.0395246216552
725,19.728854527929794
726,0.0
788,0.0
789,353.981083274561
790,19.48339437725231
791,0.0
853,0.0
854,244.47822165726714
855,21.14914548231954
856,0.0
918,0.0
919,396.96438452755655
920,0.0
921,1640.6579774404872
922,0.0
923,0.0
1133,0.0
1136,0.0
1139,0.0
1142,0.0
1145,0.0
1148,0.0
1151,1651.1057858830052
1202,0.0
1203,0.0
1206,0.0
1207,0.0
1245,1640.6579774404872
1271,2050.822471800609
1371,0.0
1397,0.0
1411,7.667054966444321
1412,7.667054966444321
1413,0.0
1414,0.0
1465,58.46298473544311
1466,0.016658870407842325
1468,7.667054966444321
1469,0.0
1470,10.72357945202748
1471,0.00664910850217303
1472,7.830135031407539
1473,15.999971924780157
1474,0.37823452791943113
1475,0.00664910850217303
1476,16.0
1477,82.0
1478,0.0
1479,0.016658870407842325
1480,0.0
1481,7.220000000000001
1482,0.0
1483,9.125
1484,0.31492082448398456
1485,0.006586514631851316
1486,11.5
1487,9.125
1488,0.31492082448398456
1489,0.006586514631851316
1490,4.5
2,1, 1, 1, 0,10, 0.00,60.00,Tuesday
7,9.575
8,76.0
9,760.6875
452,10.102850007814553
453,10.669561377915652
454,9.580402061368524
455,10.31628365167227
456,9.600281511772831
457,11.947910222096915
458,19.997995771077257
459,8367390.683274313
593,2324.2751897984203
594,0.0
595,21.512304717479726
596,0.0
658,0.0
659,417.26917497499414
660,23.62153416391283
661,0.0
723,0.0
724,905.9212704614112
725,21.42469137314731
726,0.0
788,0.0
789,515.2321723845815
790,20.944001819609692
791,0.0
853,0.0
854,347.01533777832935
855,22.99510310933696
856,0.0
918,0.0
919,540.0922582209612
920,0.0
921,1096.9947295867275
922,0.0
923,0.0
1133,0.0
1136,0.0
1139,0.0
1142,0.0
1145,0.0
1148,0.0
1151,1214.0350604511352
1202,0.0
1203,0.0
1206,0.0
1207,0.0
1245,1096.9947295867275
1271,1371.2434119834093
1371,0.0
1397,0.0
1411,7.667054966444321
1412,7.667054966444321
1413,0.0
1414,0.0
1465,57.299924066117114
1466,0.010722823618107263
1468,7.667054966444321
1469,0.0
1470,12.211420411619129
1471,0.00647549535571037
1472,7.6192793664988
1473,16.000841619851155
1474,0.4271331885429645
1475,0.00647549535571037
1476,16.0
1477,82.0
1478,0.0
1479,0.010722823618107263
1480,0.0
1481,7.220000000000001
1482,0.0
1483,9.575
1484,0.31492082448398456
1485,0.006036804227801472
1486,11.5
1487,9.575
1488,0.31492082448398456
1489,0.006036804227801472
1490,4.5
2,1, 1, 1, 0,11, 0.00,60.00,Tuesday
7,13.05
8,82.5625
9,845.8125
452,10.41170509248724
453,11.525688080965526
454,9.046677205087875
455,10.97855081281401
456,9.940156710843414
457,13.213649072344447
458,21.435442243325276
459,9254352.306397326
593,2570.653418443702
594,0.0
595,22.97057613967501
596,0.0
658,0.0
659,528.6014460421172
660,24.214009381474394
661,0.0
723,0.0
724,1824.2183048670906
725,22.665843964478675
726,0.0
788,0.0
789,634.1179590730453
790,21.983695361185912
791,0.0
853,0.0
854,420.540429141004
855,23.841862089422825
856,0.0
918,0.0
919,865.1901479021474
920,0.0
921,26.42689587550619
922,735.980493368243
923,0.0
1133,0.0
1136,0.0
1139,0.0
1142,0.0
1145,0.0
1148,0.0
1151,41.55855533160339
1202,527.9390219735548
1203,527.9390219735548
1206,314.6453250698406
1207,314.64532506984074
1245,26.42689587550619
1271,33.033619844382734
1371,440.31647220928886
1397,735.980493368243
1411,7.960615021697349
1412,7.33176374161108
1413,0.19898870390399037
1414,1176.2969655775319
1465,55.37797679028526
1466,0.00023857340886168594
1468,7.960615021697349
1469,0.19898870390399037
1470,15.718679673627863
1471,0.006826106680596167
1472,8.316507924458865
1473,15.998100076358988
1474,0.5620154037266059
1475,0.006826106680596167
1476,16.0
1477,82.0
1478,0.0
1479,0.00023857340886168594
1480,0.01594047367367271
1481,7.22
1482,0.042540128343257086
1483,11.40060483540784
1484,0.31492082448398456
1485,0.006058106323345167
1486,11.5
1487,13.05
1488,0.31492082448398456
1489,0.006058106323345167
1490,4.5
2,1, 1, 1, 0,12, 0.00,60.00,Tuesday
7,15.625
8,83.0
9,885.5625
452,11.428653792482903
453,12.37223027816945
454,10.355413437950894
455,11.952155960615379
456,11.013851304175255
457,13.287680058264872
458,22.807389159176015
459,7778432.307563929
593,2160.6756409899804
594,0.0
595,23.863505775104585
596,0.0
658,0.0
659,833.8113218308742
660,24.806303057126005
661,0.0
723,0.0
724,1977.8310145282799
725,23.439123755064518
726,0.0
788,0.0
789,708.4033574343501
790,22.623814473863913
791,0.0
853,0.0
854,466.015550448916
855,23.899390987892648
856,0.0
918,0.0
919,1230.9155032536405
920,0.0
921,0.0
922,2537.8326237830543
923,0.0
1133,0.0
1136,0.0
1139,0.0
1142,0.0
1145,0.0
1148,0.0
1151,0.0
1202,1322.0026269711248
1203,1322.0026269711245
1206,1193.9589404087144
1207,1193.9589404087146
1245,0.0
1271,0.0
1371,865.7250233580587
1397,2537.8326237830543
1411,8.650105204415429
1412,7.22
1413,0.4236947414652358
1414,3403.5576471411127
1465,55.33700893017883
1466,0.0
1468,8.650105204415429
1469,0.4236947414652358
1470,17.13279543753132
1471,0.0076593451020484675
1472,9.899117464378895
1473,15.99889910440491
1474,0.6384675796946677
1475,0.0076593451020484675
1476,16.0
1477,82.0
1478,0.0
1479,0.0
1480,0.050923299930131935
1481,7.22
1482,0.1909633690708773
1483,11.500265136797363
1484,0.31492082448398456
1485,0.006917811197507288
1486,11.5
1487,15.625
1488,0.31492082448398456
1489,0.006917811197507288
1490,4.5
2,1, 1, 1, 0,13, 0.00,60.00,Tuesday
7,15.937499999999998
8,82.25
9,884.625
452,11.991467004634764
453,11.828957250273103
454,10.28321793685149
455,12.170446873948205
456,11.22869614977824
457,13.010876467635597
458,23.91644786925123
459,4493975.371059628
593,1248.3264919610078
594,0.0
595,23.89884273831096
596,0.0
658,0.0
659,1125.8624691499808
660,24.546769195468116
661,0.0
723,0.0
724,1919.4015943448248
725,23.53861984012818
726,0.0
788,0.0
789,717.861664818502
790,22.729247053938277
791,0.0
853,0.0
854,473.4179203765849
855,23.8992406141466
856,0.0
918,0.0
919,1011.9082556487351
920,0.0
921,0.0
922,3081.0434144732767
923,0.0
1133,0.0
1136,0.0
1139,0.0
1142,0.0
1145,0.0
1148,0.0
1151,0.0
1202,1419.8611215117853
1203,1419.8611215117858
1206,1614.760683332413
1207,1614.760683332413
1245,0.0
1271,0.0
1371,965.2494026002865
1397,3081.0434144732767
1411,9.06190323793537
1412,7.22
1413,0.4017365298533586
1414,4046.292817073563
1465,55.33700893017883
1466,0.0
1468,9.06190323793537
1469,0.4017365298533586
1470,17.771557896667808
1471,0.007430497203987415
1472,9.619984692138413
1473,16.00095162827937
1474,0.647436952004996
1475,0.007430497203987415
1476,16.0
1477,82.0
1478,0.0
1479,0.0
1480,0.0708734084495612
1481,7.219999999999999
1482,0.1393176007131003
1483,11.499778047891548
1484,0.31492082448398456
1485,0.005988085179107501
1486,11.5
1487,15.937499999999998
1488,0.31492082448398456
1489,0.005988085179107501
1490,4.5
2,1, 1, 1, 0,14, 0.00,60.00,Tuesday
7,15.9625
8,77.5625
9,850.4375
452,11.022935002510952
453,10.677625117853735
454,9.937036878842266
455,11.687920762771231
456,10.79326703586204
457,12.093632650788814
458,24.83628430070607
459,1956996.6076134257
593,543.6101687815071
594,0.0
595,23.911099597873704
596,0.0
658,0.0
659,1865.8075501225824
660,24.03120180211736
661,0.0
723,0.0
724,1709.9896774680321
725,23.8689306181061
726,0.0
788,0.0
789,854.949311936391
790,23.203364339775437
791,0.0
853,0.0
854,507.270217025156
855,23.898940525755382
856,0.0
918,0.0
919,1656.3728785883536
920,0.0
921,0.0
922,4933.986930590618
923,0.0
1133,0.0
1136,0.0
1139,0.0
1142,0.0
1145,0.0
1148,0.0
1151,0.0
1202,1427.4587251251787
1203,1427.4587251251787
1206,3524.7689377112983
1207,3524.7689377112997
1245,0.0
1271,0.0
1371,1310.9670921932911
1397,4933.986930590618
1411,9.978679284467848
1412,7.219999999999999
1413,0.42601920958300865
1414,6244.95402278391
1465,55.33700893017883
1466,0.0
1468,9.978679284467848
1469,0.42601920958300865
1470,19.595748352761696
1471,0.007348457908394379
1472,9.397739083227519
1473,15.989569110218817
1474,0.8197310513976648
1475,0.007348457908394379
1476,16.0
1477,82.0
1478,0.0
1479,0.0
1480,0.1542370182189261
1481,7.219999999999999
1482,0.11516987225193008
1483,11.500020542121861
1484,0.31492082448398456
1485,0.005865949806043095
1486,11.5
1487,15.9625
1488,0.31492082448398456
1489,0.005865949806043095
1490,4.5
2,1, 1, 1, 0,15, 0.00,60.00,Tuesday
7,16.0
8,67.375
9,768.0625
452,11.211357481196778
453,10.852086714358817
454,10.489494647318539
455,11.994049356082353
456,11.409156259107984
457,12.011719156836996
458,25.565830680957337
459,540781.8145673275
593,150.21717071314652
594,0.0
595,24.34304167108172
596,0.0
658,0.0
659,2107.0451941657802
660,23.89969513699272
661,0.0
723,0.0
724,1170.2595840303447
725,23.899007550914273
726,0.0
788,0.0
789,1004.5711616461024
790,23.533555457450404
791,0.0
853,0.0
854,530.066837258503
855,23.898748034929888
856,0.0
918,0.0
919,1883.8421702651044
920,0.0
921,0.0
922,5469.618326201844
923,0.0
1133,0.0
1136,0.0
1139,0.0
1142,0.0
1145,0.0
1148,0.0
1151,0.0
1202,1440.1219142725397
1203,1440.1219142725397
1206,3909.75180906864
1207,3909.751809068641
1245,0.0
1271,0.0
1371,1412.5772162143749
1397,5469.618326201844
1411,10.001293033492619
1412,7.220000000000001
1413,0.4693541801823316
1414,6882.195542416219
1465,55.33700893017883
1466,0.0
1468,10.001293033492619
1469,0.4693541801823316
1470,20.072121799339207
1471,0.007404377897624413
1472,9.409586292946791
1473,16.000776281386635
1474,0.8200023123521489
1475,0.007404377897624413
1476,16.0
1477,82.0
1478,0.0
1479,0.0
1480,0.17036743399725818
1481,7.22
1482,0.1161827508280353
1483,11.498821547089442
1484,0.31492082448398456
1485,0.005975636751324391
1486,11.5
1487,16.0
1488,0.31492082448398456
1489,0.005975636751324391
1490,4.5
2,1, 1, 1, 0,16, 0.00,60.00,Tuesday
7,16.0
8,48.4375
9,584.375
452,11.61381127171025
453,10.930730733097477
454,10.93939364529545
455,12.336472170445466
456,11.634949127565756
457,12.134848995789078
458,26.07155462902446
459,75847.57620951896
593,21.06877116931082
594,7.949870087531963
595,24.678297097599177
596,0.0
658,0.0
659,2190.921595834881
660,23.898965309305247
661,0.0
723,0.0
724,761.9620058996946
725,23.89892957934044
726,0.0
788,0.0
789,868.6429111203176
790,23.526048858704897
791,0.0
853,0.0
854,529.4164828002497
855,23.89859652803062
856,0.0
918,0.0
919,1828.1744697147715
920,0.0
921,0.0
922,5019.715197750828
923,0.0
1133,0.0
1136,0.0
1139,0.0
1142,0.0
1145,0.0
1148,0.0
1151,0.0
1202,1438.8156338441515
1203,1438.8156338441515
1206,3416.0705783721905
1207,3416.0705783721883
1245,0.0
1271,0.0
1371,1327.0616628713594
1397,5019.715197750828
1411,9.680268579891148
1412,7.22
1413,0.48689713722984024
1414,6346.776860622189
1465,55.33700893017883
1466,0.0
1468,9.680268579891148
1469,0.4868971372298403
1470,19.877285905293434
1471,0.007213991992936767
1472,9.179034718333533
1473,16.00465850994732
1474,0.7457008306671404
1475,0.007213991992936767
1476,16.0
1477,82.0
1478,0.0
1479,0.0
1480,0.15090699624687448
1481,7.22
1482,0.11603462638806657
1483,11.498658512330158
1484,0.31492082448398456
1485,0.005460130044339858
1486,11.5
1487,16.0
1488,0.31492082448398456
1489,0.005460130044339858
1490,4.5
2,1, 1, 1, 0,17, 0.00,60.00,Tuesday
7,16.0
8,20.9375
9,245.0625
452,11.42625128739356
453,10.671063579517908
454,11.267725189637215
455,12.458293602898227
456,11.353957450881149
457,12.108522840685213
458,26.21716373898993
459,49888.10920029064
593,13.857808111191844
594,18.784178111217443
595,24.126832816930644
596,0.0
658,0.0
659,1975.501307227711
660,23.732567055842708
661,0.0
723,0.0
724,521.6792851432238
725,23.645687123728887
726,0.0
788,0.0
789,727.1485180750711
790,23.294270762448583
791,0.0
853,0.0
854,512.4323555711799
855,23.898850778709217
856,0.0
918,0.0
919,1521.8057022709395
920,0.0
921,0.0
922,4195.719739767465
923,0.0
1133,0.0
1136,0.0
1139,0.0
1142,0.0
1145,0.0
1148,0.0
1151,0.0
1202,1439.1019038551249
1203,1439.1019038551249
1206,2553.503783012677
1207,2553.5037830126757
1245,0.0
1271,0.0
1371,1171.9893250888038
1397,4195.719739767465
1411,9.22446935006355
1412,7.219999999999999
1413,0.4994482137163184
1414,5367.709064856268
1465,55.33700893017883
1466,0.0
1468,9.22446935006355
1469,0.4994482137163184
1470,19.16767900713736
1471,0.007216138250357768
1472,9.122295279287227
1473,16.011682941189576
1474,0.6558438400041717
1475,0.007216138250357768
1476,16.0
1477,82.0
1478,0.0
1479,0.0
1480,0.1138925676646787
1481,7.22
1482,0.1160317652167477
1483,11.501245181587073
1484,0.31492082448398456
1485,0.005882786663702501
1486,11.5
1487,16.0
1488,0.31492082448398456
1489,0.005882786663702501
1490,4.5
2,1, 1, 1, 0,18, 0.00,60.00,Tuesday
7,14.75
8,2.9375
9,17.0625
452,11.772470647735538
453,11.403078101827608
454,11.613292717997666
455,12.664199758768131
456,11.48266927350262
457,12.511854762562468
458,26.019763934729916
459,658340.2459640806
593,182.87229054557793
594,0.0
595,23.899603704991605
596,0.0
658,0.0
659,1077.5750249219684
660,23.17576001036849
661,0.0
723,0.0
724,481.9038991753326
725,23.284319716638436
726,0.0
788,0.0
789,691.0738013600053
790,22.930822957707363
791,0.0
853,0.0
854,485.54273863982206
855,23.898879913780128
856,0.0
918,0.0