Program Version,EnergyPlus, Version 24.1.0-9d7789a3ac, YMD=2026.01.18 13:30
1,5,Environment Title[],Latitude[deg],Longitude[deg],Time Zone[],Elevation[m]
2,8,Day of Simulation[],Month[],Day of Month[],DST Indicator[1=yes 0=no],Hour[],StartMinute[],EndMinute[],DayType
3,5,Cumulative Day of Simulation[],Month[],Day of Month[],DST Indicator[1=yes 0=no],DayType  ! When Daily Report Variables Requested
4,2,Cumulative Days of Simulation[],Month[]  ! When Monthly Report Variables Requested
5,1,Cumulative Days of Simulation[] ! When Run Period Report Variables Requested
6,1,Calendar Year of Simulation[] ! When Annual Report Variables Requested
7,1,Environment,Site Outdoor Air Drybulb Temperature [C] !Hourly
8,1,Environment,Site Diffuse Solar Radiation Rate per Area [W/m2] !Hourly
9,1,Environment,Site Direct Solar Radiation Rate per Area [W/m2] !Hourly
452,1,PLENUM-1,Zone Mean Air Dewpoint Temperature [C] !Hourly
453,1,SPACE1-1,Zone Mean Air Dewpoint Temperature [C] !Hourly
454,1,SPACE2-1,Zone Mean Air Dewpoint Temperature [C] !Hourly
455,1,SPACE3-1,Zone Mean Air Dewpoint Temperature [C] !Hourly
456,1,SPACE4-1,Zone Mean Air Dewpoint Temperature [C] !Hourly
457,1,SPACE5-1,Zone Mean Air Dewpoint Temperature [C] !Hourly
458,1,PLENUM-1,Zone Air Temperature [C] !Hourly
459,1,PLENUM-1,Zone Air System Sensible Heating Energy [J] !Hourly
593,1,PLENUM-1,Zone Air System Sensible Heating Rate [W] !Hourly
594,1,PLENUM-1,Zone Air System Sensible Cooling Rate [W] !Hourly
595,1,SPACE1-1,Zone Air Temperature [C] !Hourly
596,1,SPACE1-1,Zone Air System Sensible Heating Energy [J] !Hourly
658,1,SPACE1-1,Zone Air System Sensible Heating Rate [W] !Hourly
659,1,SPACE1-1,Zone Air System Sensible Cooling Rate [W] !Hourly
660,1,SPACE2-1,Zone Air Temperature [C] !Hourly
661,1,SPACE2-1,Zone Air System Sensible Heating Energy [J] !Hourly
723,1,SPACE2-1,Zone Air System Sensible Heating Rate [W] !Hourly
724,1,SPACE2-1,Zone Air System Sensible Cooling Rate [W] !Hourly
725,1,SPACE3-1,Zone Air Temperature [C] !Hourly
726,1,SPACE3-1,Zone Air System Sensible Heating Energy [J] !Hourly
788,1,SPACE3-1,Zone Air System Sensible Heating Rate [W] !Hourly
789,1,SPACE3-1,Zone Air System Sensible Cooling Rate [W] !Hourly
790,1,SPACE4-1,Zone Air Temperature [C] !Hourly
791,1,SPACE4-1,Zone Air System Sensible Heating Energy [J] !Hourly
853,1,SPACE4-1,Zone Air System Sensible Heating Rate [W] !Hourly
854,1,SPACE4-1,Zone Air System Sensible Cooling Rate [W] !Hourly
855,1,SPACE5-1,Zone Air Temperature [C] !Hourly
856,1,SPACE5-1,Zone Air System Sensible Heating Energy [J] !Hourly
918,1,SPACE5-1,Zone Air System Sensible Heating Rate [W] !Hourly
919,1,SPACE5-1,Zone Air System Sensible Cooling Rate [W] !Hourly
920,1,HOT WATER LOOP,Plant Supply Side Cooling Demand Rate [W] !Hourly
921,1,HOT WATER LOOP,Plant Supply Side Heating Demand Rate [W] !Hourly
922,1,CHILLED WATER LOOP,Plant Supply Side Cooling Demand Rate [W] !Hourly
923,1,CHILLED WATER LOOP,Plant Supply Side Heating Demand Rate [W] !Hourly
1133,1,SPACE1-1 ZONE COIL,Heating Coil Heating Rate [W] !Hourly
1136,1,SPACE2-1 ZONE COIL,Heating Coil Heating Rate [W] !Hourly
1139,1,SPACE3-1 ZONE COIL,Heating Coil Heating Rate [W] !Hourly
1142,1,SPACE4-1 ZONE COIL,Heating Coil Heating Rate [W] !Hourly
1145,1,SPACE5-1 ZONE COIL,Heating Coil Heating Rate [W] !Hourly
1148,1,OA HEATING COIL 1,Heating Coil Heating Rate [W] !Hourly
1151,1,MAIN HEATING COIL 1,Heating Coil Heating Rate [W] !Hourly
1202,1,OA COOLING COIL 1,Cooling Coil Total Cooling Rate [W] !Hourly
1203,1,OA COOLING COIL 1,Cooling Coil Sensible Cooling Rate [W] !Hourly
1206,1,MAIN COOLING COIL 1,Cooling Coil Total Cooling Rate [W] !Hourly
1207,1,MAIN COOLING COIL 1,Cooling Coil Sensible Cooling Rate [W] !Hourly
1245,1,CENTRAL BOILER,Boiler Heating Rate [W] !Hourly
1271,1,CENTRAL BOILER,Boiler NaturalGas Rate [W] !Hourly
1371,1,CENTRAL CHILLER,Chiller Electricity Rate [W] !Hourly
1397,1,CENTRAL CHILLER,Chiller Evaporator Cooling Rate [W] !Hourly
1411,1,CENTRAL CHILLER,Chiller Evaporator Inlet Temperature [C] !Hourly
1412,1,CENTRAL CHILLER,Chiller Evaporator Outlet Temperature [C] !Hourly
1413,1,CENTRAL CHILLER,Chiller Evaporator Mass Flow Rate [kg/s] !Hourly
1414,1,CENTRAL CHILLER,Chiller Condenser Heat Transfer Rate [W] !Hourly
1465,1,HW CIRC PUMP,Pump Outlet Temperature [C] !Hourly
1466,1,HW CIRC PUMP,Pump Mass Flow Rate [kg/s] !Hourly
1468,1,CW CIRC PUMP,Pump Outlet Temperature [C] !Hourly
1469,1,CW CIRC PUMP,Pump Mass Flow Rate [kg/s] !Hourly
1470,1,MIXED AIR NODE 1,System Node Temperature [C] !Hourly
1471,1,MIXED AIR NODE 1,System Node Humidity Ratio [kgWater/kgDryAir] !Hourly
1472,1,MIXED AIR NODE 1,System Node Dewpoint Temperature [C] !Hourly
1473,1,VAV SYS 1 OUTLET NODE,System Node Temperature [C] !Hourly
1474,1,VAV SYS 1 OUTLET NODE,System Node Mass Flow Rate [kg/s] !Hourly
1475,1,VAV SYS 1 OUTLET NODE,System Node Humidity Ratio [kgWater/kgDryAir] !Hourly
1476,1,VAV SYS 1 OUTLET NODE,System Node Setpoint Temperature [C] !Hourly
1477,1,OA HEATING COIL 1 WATER INLET NODE,System Node Temperature [C] !Hourly
1478,1,OA HEATING COIL 1 WATER INLET NODE,System Node Mass Flow Rate [kg/s] !Hourly
1479,1,MAIN HEATING COIL 1 WATER INLET NODE,System Node Mass Flow Rate [kg/s] !Hourly
1480,1,MAIN COOLING COIL 1 WATER INLET NODE,System Node Mass Flow Rate [kg/s] !Hourly
1481,1,OA COOLING COIL 1 WATER INLET NODE,System Node Temperature [C] !Hourly
1482,1,OA COOLING COIL 1 WATER INLET NODE,System Node Mass Flow Rate [kg/s] !Hourly
1483,1,OA MIXING BOX 1 INLET NODE,System Node Temperature [C] !Hourly
1484,1,OA MIXING BOX 1 INLET NODE,System Node Mass Flow Rate [kg/s] !Hourly
1485,1,OA MIXING BOX 1 INLET NODE,System Node Humidity Ratio [kgWater/kgDryAir] !Hourly
1486,1,OA MIXING BOX 1 INLET NODE,System Node Setpoint Temperature [C] !Hourly
1487,1,OA HEATING COIL 1 AIR OUTLET NODE,System Node Temperature [C] !Hourly
1488,1,OA HEATING COIL 1 AIR OUTLET NODE,System Node Mass Flow Rate [kg/s] !Hourly
1489,1,OA HEATING COIL 1 AIR OUTLET NODE,System Node Humidity Ratio [kgWater/kgDryAir] !Hourly
1490,1,OA HEATING COIL 1 AIR OUTLET NODE,System Node Setpoint Temperature [C] !Hourly
